test                                                                    
SP        RHF                                                         6-31G               
Number of atoms                            I                5
Info1-9                                    I   N=           9
          14          12           0           0           0         110
           1           1           2
Full Title                                 C   N=           1
test        
Route                                      C   N=           5
#P rhf 6-31G int=noraff output=matrix scf=conven nosymm     
Charge                                     I                0
Multiplicity                               I                1
Number of electrons                        I               10
Number of alpha electrons                  I                5
Number of beta electrons                   I                5
Number of basis functions                  I               17
Number of independent functions            I               17
Number of point charges in /Mol/           I                0
Number of translation vectors              I                0
Atomic numbers                             I   N=           5
           6           1           1           1           1
Nuclear charges                            R   N=           5
  6.00000000E+00  1.00000000E+00  1.00000000E+00  1.00000000E+00  1.00000000E+00
Current cartesian coordinates              R   N=          15
  0.00000000E+00  0.00000000E+00  0.00000000E+00  0.00000000E+00  0.00000000E+00
  5.80145962E+00  1.90636658E+00  0.00000000E+00 -6.74002362E-01 -9.53183148E-01
 -1.65096212E+00 -6.74001965E-01 -9.53183300E-01  1.65096187E+00 -6.74002381E-01
Number of symbols in /Mol/                 I                0
Force Field                                I                0
Atom Types                                 C   N=           5
                                                            
Int Atom Types                             I   N=           5
           0           0           0           0           0
MM charges                                 R   N=           5
  0.00000000E+00  0.00000000E+00  0.00000000E+00  0.00000000E+00  0.00000000E+00
Integer atomic weights                     I   N=           5
          12           1           1           1           1
Real atomic weights                        R   N=           5
  1.20000000E+01  1.00782504E+00  1.00782504E+00  1.00782504E+00  1.00782504E+00
Atom fragment info                         I   N=           5
           0           0           0           0           0
Atom residue num                           I   N=           5
           0           0           0           0           0
Nuclear spins                              I   N=           5
           0           1           1           1           1
Nuclear ZEff                               R   N=           5
 -3.60000000E+00 -1.00000000E+00 -1.00000000E+00 -1.00000000E+00 -1.00000000E+00
Nuclear ZNuc                               R   N=           5
  6.00000000E+00  1.00000000E+00  1.00000000E+00  1.00000000E+00  1.00000000E+00
Nuclear QMom                               R   N=           5
  0.00000000E+00  0.00000000E+00  0.00000000E+00  0.00000000E+00  0.00000000E+00
Nuclear GFac                               R   N=           5
  0.00000000E+00  2.79284600E+00  2.79284600E+00  2.79284600E+00  2.79284600E+00
MicOpt                                     I   N=           5
          -1          -1          -1          -1          -1
Number of residues                         I                0
Number of secondary structures             I                0
Number of contracted shells                I               11
Number of primitive shells                 I               26
Pure/Cartesian d shells                    I                1
Pure/Cartesian f shells                    I                0
Highest angular momentum                   I                1
Largest degree of contraction              I                6
Shell types                                I   N=          11
           0          -1          -1           0           0           0
           0           0           0           0           0
Number of primitives per shell             I   N=          11
           6           3           1           3           1           3
           1           3           1           3           1
Shell to atom map                          I   N=          11
           1           1           1           2           2           3
           3           4           4           5           5
Primitive exponents                        R   N=          26
  3.04752488E+03  4.57369518E+02  1.03948685E+02  2.92101553E+01  9.28666296E+00
  3.16392696E+00  7.86827235E+00  1.88128854E+00  5.44249258E-01  1.68714478E-01
  1.87311370E+01  2.82539436E+00  6.40121692E-01  1.61277759E-01  1.87311370E+01
  2.82539436E+00  6.40121692E-01  1.61277759E-01  1.87311370E+01  2.82539436E+00
  6.40121692E-01  1.61277759E-01  1.87311370E+01  2.82539436E+00  6.40121692E-01
  1.61277759E-01
Contraction coefficients                   R   N=          26
  1.83473713E-03  1.40373228E-02  6.88426223E-02  2.32184443E-01  4.67941348E-01
  3.62311985E-01 -1.19332420E-01 -1.60854152E-01  1.14345644E+00  1.00000000E+00
  3.34946043E-02  2.34726953E-01  8.13757326E-01  1.00000000E+00  3.34946043E-02
  2.34726953E-01  8.13757326E-01  1.00000000E+00  3.34946043E-02  2.34726953E-01
  8.13757326E-01  1.00000000E+00  3.34946043E-02  2.34726953E-01  8.13757326E-01
  1.00000000E+00
P(S=P) Contraction coefficients            R   N=          26
  0.00000000E+00  0.00000000E+00  0.00000000E+00  0.00000000E+00  0.00000000E+00
  0.00000000E+00  6.89990666E-02  3.16423961E-01  7.44308291E-01  1.00000000E+00
  0.00000000E+00  0.00000000E+00  0.00000000E+00  0.00000000E+00  0.00000000E+00
  0.00000000E+00  0.00000000E+00  0.00000000E+00  0.00000000E+00  0.00000000E+00
  0.00000000E+00  0.00000000E+00  0.00000000E+00  0.00000000E+00  0.00000000E+00
  0.00000000E+00
Coordinates of each shell                  R   N=          33
  0.00000000E+00  0.00000000E+00  0.00000000E+00  0.00000000E+00  0.00000000E+00
  0.00000000E+00  0.00000000E+00  0.00000000E+00  0.00000000E+00  0.00000000E+00
  0.00000000E+00  5.80145962E+00  0.00000000E+00  0.00000000E+00  5.80145962E+00
  1.90636658E+00  0.00000000E+00 -6.74002362E-01  1.90636658E+00  0.00000000E+00
 -6.74002362E-01 -9.53183148E-01 -1.65096212E+00 -6.74001965E-01 -9.53183148E-01
 -1.65096212E+00 -6.74001965E-01 -9.53183300E-01  1.65096187E+00 -6.74002381E-01
 -9.53183300E-01  1.65096187E+00 -6.74002381E-01
Num ILSW                                   I              100
ILSW                                       I   N=         100
           0           1           0           0           2           0
           0           0           0           0           0          -1
           5           0           0           0           0           0
           0           0           0           0           0           0
           1           1           0           0           0           0
           0           0      100000           0          -1           0
           0           0           0           0           0           0
           0           0           0           1           0           0
           0 -2000000000           1           0           0           0
           0           0           4          52           0           0
           0           0           0           0           0           0
           0           0           0           5           0           1
           0           0           0           0           0           0
           0           0           0           0           0           0
           0           0           0           0           0           0
           0           0           0           0           0           0
           0           0           0           0
Num RLSW                                   I               52
RLSW                                       R   N=          52
  1.00000000E+00  1.00000000E+00  1.00000000E+00  1.00000000E+00  1.00000000E+00
  0.00000000E+00  0.00000000E+00  1.00000000E+00  0.00000000E+00  0.00000000E+00
  0.00000000E+00  0.00000000E+00  1.00000000E+00  0.00000000E+00  0.00000000E+00
  0.00000000E+00  0.00000000E+00  1.00000000E+00  0.00000000E+00  0.00000000E+00
  0.00000000E+00  0.00000000E+00  1.00000000E+00  0.00000000E+00  0.00000000E+00
  0.00000000E+00  0.00000000E+00  1.00000000E+00  0.00000000E+00  0.00000000E+00
  0.00000000E+00  0.00000000E+00  1.00000000E+00  0.00000000E+00  0.00000000E+00
  0.00000000E+00  0.00000000E+00  0.00000000E+00  1.00000000E+00  1.00000000E+00
  0.00000000E+00  1.00000000E+00  0.00000000E+00  0.00000000E+00  0.00000000E+00
  0.00000000E+00  0.00000000E+00  0.00000000E+00  0.00000000E+00  0.00000000E+00
  0.00000000E+00  0.00000000E+00
MxBond                                     I                3
NBond                                      I   N=           5
           3           0           1           1           1
IBond                                      I   N=          15
           3           4           5           0           0           0
           1           0           0           1           0           0
           1           0           0
RBond                                      R   N=          15
  1.00000000E+00  1.00000000E+00  1.00000000E+00  0.00000000E+00  0.00000000E+00
  0.00000000E+00  1.00000000E+00  0.00000000E+00  0.00000000E+00  1.00000000E+00
  0.00000000E+00  0.00000000E+00  1.00000000E+00  0.00000000E+00  0.00000000E+00
Virial Ratio                               R      2.001411427311209E+00
SCF Energy                                 R     -3.989232405481190E+01
Total Energy                               R     -3.989232405481190E+01
RMS Density                                R      3.689271898438134E-09
Job Status                                 I                1
Nuclear derivative order                   I                0
External E-field                           R   N=          35
  0.00000000E+00  0.00000000E+00  0.00000000E+00  0.00000000E+00  0.00000000E+00
  0.00000000E+00  0.00000000E+00  0.00000000E+00  0.00000000E+00  0.00000000E+00
  0.00000000E+00  0.00000000E+00  0.00000000E+00  0.00000000E+00  0.00000000E+00
  0.00000000E+00  0.00000000E+00  0.00000000E+00  0.00000000E+00  0.00000000E+00
  0.00000000E+00  0.00000000E+00  0.00000000E+00  0.00000000E+00  0.00000000E+00
  0.00000000E+00  0.00000000E+00  0.00000000E+00  0.00000000E+00  0.00000000E+00
  0.00000000E+00  0.00000000E+00  0.00000000E+00  0.00000000E+00  0.00000000E+00
IOpCl                                      I                0
IROHF                                      I                0
Alpha Orbital Energies                     R   N=          17
 -1.13189667E+01 -9.71600756E-01 -6.09082125E-01 -6.09082096E-01 -2.80629338E-01
 -3.50266975E-02  2.38263220E-01  2.99089748E-01  2.99089757E-01  7.00036905E-01
  7.00036924E-01  7.75516241E-01  1.02731309E+00  1.13893012E+00  1.18545948E+00
  1.18545952E+00  1.21537783E+00
Alpha MO coefficients                      R   N=         289
  9.96274602E-01  2.38321563E-02  1.45309890E-10 -3.63500543E-11 -3.05244849E-04
 -1.35926395E-02 -2.90548968E-10  2.27268763E-10  1.58473730E-03 -1.47842624E-04
  3.81269929E-04 -1.34354662E-04  3.09267724E-03 -1.34354677E-04  3.09267704E-03
 -1.34354690E-04  3.09267700E-03 -1.96056970E-01  3.97132684E-01  8.95519527E-09
 -1.21532516E-08 -9.62220965E-02  3.68978020E-01  4.15937716E-09 -3.92516618E-09
 -3.83746190E-02  5.95232166E-03  1.18783104E-02  1.57011928E-01  3.78064555E-02
  1.57011923E-01  3.78064548E-02  1.57011922E-01  3.78064548E-02  5.83845675E-11
 -2.44736901E-10  2.11553368E-03  4.68585197E-01 -5.58123323E-08  1.34801956E-10
  8.56722606E-04  1.89761714E-01 -2.15319359E-08 -1.40033577E-09 -2.38750183E-09
  1.32256956E-03  1.00013533E-03 -2.54357338E-01 -1.92346607E-01  2.53034768E-01
  1.91346474E-01  7.37033775E-09 -1.50592618E-08  4.68585197E-01 -2.11553247E-03
 -2.86722908E-08 -1.98509277E-08  1.89761724E-01 -8.56721225E-04 -1.10920842E-08
 -1.29072266E-09 -2.85927820E-09  2.92942969E-01  2.21525325E-01 -1.45326105E-01
 -1.09896518E-01 -1.47616863E-01 -1.11628806E-01 -3.21539539E-02  3.94140090E-02
  2.23925433E-08  3.84055074E-08  2.80696926E-01  1.61246419E-01  1.91663878E-08
  3.83624233E-08  3.61988449E-01  2.24980492E-01  5.70362568E-01 -3.86245571E-02
 -1.52149113E-02 -3.86245680E-02 -1.52149278E-02 -3.86245624E-02 -1.52149190E-02
  5.61668549E-02 -1.27609734E-01 -2.45116798E-08 -4.38986259E-08 -3.77726042E-01
 -2.27760548E-01 -3.16235170E-08 -6.27043059E-08 -4.42882186E-01  2.08098524E-01
  5.20303853E-01  3.03322311E-02  4.63490349E-02  3.03322284E-02  4.63490277E-02
  3.03322366E-02  4.63490454E-02 -1.35727188E-01  1.23359876E-01 -3.16669606E-09
 -8.18208932E-09 -1.34167397E-01  2.47031150E+00  9.47249529E-09 -6.12519927E-08
 -6.30952074E-01  2.43754122E-02  3.11851085E-02 -9.13940423E-03 -1.23899908E+00
 -9.13941865E-03 -1.23899908E+00 -9.13941888E-03 -1.23899912E+00  5.02906658E-10
  3.58750442E-09 -3.39230423E-01  2.45254953E-02  1.99031870E-08 -6.46393960E-08
 -1.43698343E+00  1.03890239E-01  8.98577171E-08 -1.97810088E-09 -5.54982795E-09
  7.20522867E-02  1.91755778E+00 -3.15148602E-02 -8.38717726E-01 -4.05374544E-02
 -1.07883993E+00  2.43140318E-09 -4.41918271E-09  2.45254921E-02  3.39230430E-01
 -4.47127917E-08 -4.49915909E-08  1.03890236E-01  1.43698357E+00 -1.76803696E-07
  1.79157494E-09  1.20628934E-08 -5.20920089E-03 -1.38634598E-01  6.50036896E-02
  1.72997115E+00 -5.97944887E-02 -1.59133649E+00  9.73777497E-10  5.79103381E-08
 -7.46949488E-01 -3.64470028E-02 -7.20099549E-09 -6.07199304E-08  1.55861554E+00
  7.60518300E-02 -4.00029110E-08  1.91751742E-08 -5.63492338E-09 -4.97505086E-01
 -3.01786752E-01  2.69775767E-01  1.63646021E-01  2.27729412E-01  1.38140664E-01
  1.07252142E-09 -9.17556064E-09  3.64470030E-02 -7.46949492E-01  6.18963931E-08
 -5.59868714E-09 -7.60518160E-02  1.55861584E+00 -1.57919392E-07  2.94086800E-08
 -4.91386048E-09  2.42754769E-02  1.47255146E-02  4.18714329E-01  2.53992492E-01
 -4.42989803E-01 -2.68717991E-01  3.97135022E-02 -1.65101636E-01 -2.39250055E-08
 -1.14398408E-07 -1.04216731E+00 -2.69383926E-01 -5.60981098E-08  1.04981120E-07
  1.11875573E+00 -2.62445497E-01  9.15726843E-02  1.02946185E-01  1.30563624E-01
  1.02946136E-01  1.30563544E-01  1.02946161E-01  1.30563553E-01 -5.55478165E-02
 -1.09819146E+00 -1.04392212E-07 -6.94285252E-09  1.17749622E-01  2.71251708E+00
  2.71979467E-07 -4.70259372E-08 -7.61173296E-01 -8.57600293E-01  7.06259133E-01
 -4.12819171E-01 -5.55637086E-01 -4.12819209E-01 -5.55636749E-01 -4.12819229E-01
 -5.55636769E-01 -5.62791722E-02 -8.16428415E-01 -2.51078921E-07  2.08357408E-09
 -3.10742609E-01  1.92227232E+00  3.83259079E-07 -9.82820063E-08 -8.09506996E-02
  9.25368514E-01 -8.46070000E-01 -4.66745833E-01 -2.35019180E-01 -4.66746169E-01
 -2.35018559E-01 -4.66746186E-01 -2.35018451E-01 -7.16471877E-09 -6.52081651E-07
  8.92068936E-01 -4.04223231E-02 -5.25201146E-08  1.36386728E-06 -1.04730933E+00
  4.74567299E-02 -1.27730655E-07  2.10073459E-07 -2.01426664E-07 -9.83937095E-01
  1.52086794E+00  4.53356570E-01 -7.00752174E-01  5.30580380E-01 -8.20116755E-01
  4.66749588E-09 -1.66687767E-07 -4.04223245E-02 -8.92068954E-01  1.40081432E-07
  3.10531827E-07  4.74567324E-02  1.04730930E+00 -1.81603080E-07  3.39773169E-08
 -2.76677699E-08  4.45852319E-02 -6.89152830E-02 -8.74407049E-01  1.35156798E+00
  8.29821949E-01 -1.28265301E+00  5.48500532E-02 -1.72220513E+00 -1.85830225E-07
  1.37176924E-07  3.03503196E-01  3.16294875E+00  2.27125198E-07 -1.86521672E-07
 -4.98110826E-01  1.90322947E-01 -1.86399702E-01  5.06454207E-01 -1.08402739E+00
  5.06454001E-01 -1.08402710E+00  5.06453825E-01 -1.08402681E+00
Orthonormal basis                          R   N=         289
  5.12966625E-02  1.95087292E-01  5.06210677E-09 -5.87318105E-09 -4.45632655E-02
  2.37973574E-01  7.45272663E-09 -8.46996190E-09 -6.53636302E-02  2.03753610E-03
  7.84407740E-03  1.19028028E-01  1.87581208E-01  1.19028021E-01  1.87581200E-01
  1.19028020E-01  1.87581200E-01 -5.66337380E-11 -4.97934496E-11 -4.44092118E-04
  2.98495906E-01 -3.80551164E-08  8.44294980E-11 -5.51852486E-04  3.70926704E-01
 -4.79657163E-08 -4.99885237E-09 -8.87747561E-09 -3.97432582E-04 -3.25079845E-04
 -2.31152942E-01 -1.89071493E-01  2.31550376E-01  1.89396574E-01 -5.65137735E-09
 -1.60125978E-08  2.98495923E-01  4.44092534E-04 -1.77893064E-08 -1.74758314E-08
  3.70926719E-01  5.51852442E-04 -2.22674313E-08 -3.15747955E-09 -5.73934500E-09
  2.67141888E-01  2.18508631E-01 -1.33915132E-01 -1.09535850E-01 -1.33226758E-01
 -1.08972795E-01  4.71316559E-02  9.04304941E-02  2.41824669E-08  4.37118148E-08
  2.93582789E-01  9.88891424E-02  2.57706668E-08  4.59711240E-08  3.46383739E-01
  3.93972256E-01  4.31689937E-01 -3.89155169E-02  3.26710017E-03 -3.89155310E-02
  3.26709311E-03 -3.89155199E-02  3.26709824E-03  9.41108520E-02  1.48482438E-01
  2.67858432E-08  4.92810049E-08  4.30155573E-01  1.23222268E-01  2.66711762E-08
  4.82371272E-08  3.87442370E-01 -3.86158559E-01 -3.34040326E-01 -4.93173566E-02
  4.25241057E-03 -4.93173530E-02  4.25241142E-03 -4.93173610E-02  4.25240817E-03
  9.68132074E-01  1.00499000E-01 -6.96431145E-09 -1.74387473E-08 -1.50929191E-01
 -3.86811081E-02 -5.53727906E-09 -1.02328045E-08 -8.46099065E-02  3.28621680E-02
  3.67511713E-03 -7.68746852E-02 -7.99019364E-02 -7.68746991E-02 -7.99019408E-02
 -7.68747002E-02 -7.99019411E-02  1.42127136E-08 -1.71345115E-08  1.10107620E+00
 -8.05410748E-02 -4.81859684E-08 -1.32109716E-08 -1.69011898E-01  1.23628187E-02
  1.91553613E-08 -3.10308974E-09  1.10212498E-09 -3.82553666E-01 -3.43789780E-01
  1.67042995E-01  1.50116574E-01  2.15510782E-01  1.93673168E-01 -4.72946387E-09
  9.22370424E-09  8.05410734E-02  1.10107625E+00 -1.50892677E-07  2.51076904E-09
 -1.23628162E-02 -1.69012012E-01  2.46209313E-08 -8.87910247E-09  3.81098137E-09
 -2.79829004E-02 -2.51474124E-02  3.45292544E-01  3.10304415E-01 -3.17309653E-01
 -2.85157011E-01  2.62536199E-01 -8.02150731E-01 -7.85404974E-10  1.20478209E-07
  8.26017803E-01 -1.94820091E-01  4.63667538E-08 -6.44484084E-08 -4.62558612E-01
  1.61764846E-01 -1.01095151E-01  2.14378993E-01  2.13013200E-01  2.14379124E-01
  2.13013160E-01  2.14379118E-01  2.13013149E-01  1.80556303E-01 -6.00098408E-01
 -1.90017110E-06  5.36659529E-07 -4.43808531E-01 -6.85597057E-02  8.16556054E-06
 -2.53503573E-06  7.59270126E-01 -4.88869399E-01  4.01711087E-01  5.17411661E-01
 -5.85337567E-02  5.17422799E-01 -5.85382229E-02  5.17427936E-01 -5.85402735E-02
  1.73142850E-06 -5.83399742E-06  1.90975384E-01  8.91189426E-04 -4.13792584E-06
 -6.22169481E-07 -8.55396438E-01 -3.99174364E-03  7.18263023E-06 -4.71161257E-06
  3.88196487E-06  9.65336900E-01 -3.86062763E-01 -4.86562339E-01  1.94590834E-01
 -4.78759931E-01  1.91470444E-01  5.63337675E-07 -1.85619928E-06  8.91199157E-04
 -1.90975141E-01 -1.36114130E-06 -2.25277328E-07 -3.99174475E-03  8.55396373E-01
  2.28398131E-06 -1.44478582E-06  1.18852479E-06  4.50637354E-03 -1.80176617E-03
  8.33751453E-01 -3.33439158E-01 -8.38252864E-01  3.35240306E-01 -3.29162138E-02
  6.02587922E-01 -1.46232598E-08  5.01257728E-08  2.36873326E-01 -2.39101030E-01
 -9.12226846E-08 -7.49153781E-08 -6.84550190E-02  5.40409450E-01 -5.01153385E-01
  5.75918058E-01 -4.54396638E-01  5.75917800E-01 -4.54396547E-01  5.75917927E-01
 -4.54396612E-01 -4.90467125E-02  5.54456761E-01  1.95433343E-08  5.40593744E-08
  5.23488976E-01 -1.83412712E-01 -7.69349975E-09 -5.03265294E-08 -7.17347194E-01
 -9.63396338E-01  1.06434167E+00  1.07454469E-01 -2.31580228E-01  1.07454565E-01
 -2.31580307E-01  1.07454485E-01 -2.31580246E-01  7.33375608E-10 -7.83211671E-08
  5.89319289E-01 -1.45916814E-02 -2.85892482E-08  1.52131353E-07 -2.17829458E+00
  5.39350788E-02  1.18163409E-07  1.11972108E-08 -2.01029596E-08 -3.98469192E-01
  2.41561762E+00  1.90690251E-01 -1.15601073E+00  2.07779018E-01 -1.25960703E+00
 -3.03154362E-10 -4.83940258E-09 -1.45916810E-02 -5.89319315E-01  7.91101064E-08
  1.05792841E-08  5.39350763E-02  2.17829488E+00 -2.87507769E-07 -1.82145678E-08
  3.37998086E-08  9.86620664E-03 -5.98113653E-02 -3.50017486E-01  2.12189201E+00
  3.40151278E-01 -2.06208067E+00 -9.19036437E-02 -1.81787909E+00 -3.25977128E-08
  2.55849342E-08  1.78798681E-01  5.21821624E+00  2.22220797E-07 -1.58018648E-07
 -1.10506710E+00  2.61489004E-02 -3.64144575E-02 -3.97333779E-02 -1.65667102E+00
 -3.97333477E-02 -1.65667082E+00 -3.97333511E-02 -1.65667078E+00
Total SCF Density                          R   N=         153
  2.06407059E+00 -1.10769150E-01  3.19671609E-01  2.24557196E-09 -5.22924248E-09
  4.39153124E-01  2.24678418E-09 -6.79285291E-09  1.13367202E-09  4.39153124E-01
  1.90707779E-02 -5.43136458E-02 -1.62593957E-08 -2.82848905E-08  1.76099099E-01
 -1.82134848E-01  3.05129315E-01 -4.77710642E-09  3.62824681E-09  1.95233696E-02
  3.24659893E-01 -6.45117140E-10 -9.15113557E-10  1.77842695E-01  8.83990658E-10
 -1.01781639E-09  1.72469738E-09  7.20204920E-02 -4.65520954E-10 -1.49837368E-10
  8.25024238E-10  1.77842685E-01  1.15870598E-09  9.55400226E-09  5.06175145E-10
  7.20204840E-02 -5.07382975E-03 -1.86926350E-03  5.03856420E-09  8.60517619E-09
  2.10602095E-01  8.83768192E-02  9.30927225E-09  1.99226136E-08  2.65021520E-01
 -1.70965967E-02  2.24554424E-02  8.96678426E-09  1.58294184E-08  1.25157266E-01
  7.69511684E-02  8.18146961E-09  1.66855502E-08  1.62423374E-01  1.01303347E-01
 -4.05767755E-02  5.44132543E-02  2.30668604E-08  4.12959815E-08  3.17911895E-01
  1.92693150E-01  2.08729175E-08  4.27666915E-08  4.12018880E-01  2.56782197E-01
  6.50909397E-01 -5.93504052E-02  1.21658027E-01  2.74543074E-01  5.52699467E-09
 -5.18995576E-02  1.03415398E-01  1.11180992E-01  1.01786622E-09 -4.00142653E-02
 -1.55103338E-02 -4.03300345E-02  2.23923904E-01 -7.68368429E-03  2.89764007E-02
  2.07611208E-01  7.09976976E-09 -1.58190914E-02  2.29087182E-02  8.40757687E-02
  2.43092446E-09 -1.39070637E-02 -6.39695912E-03 -1.64555211E-02  1.42837855E-01
  1.01489712E-01 -5.93504091E-02  1.21658035E-01 -1.37271525E-01 -2.37761289E-01
 -5.18995091E-02  1.03415408E-01 -5.55904921E-02 -9.62855649E-02 -4.00142521E-02
 -1.55103369E-02 -4.03300433E-02 -3.35280926E-02 -5.18489725E-02  2.23923903E-01
 -7.68368822E-03  2.89764088E-02 -1.03805594E-01 -1.79796568E-01 -1.58190599E-02
  2.29087254E-02 -4.20378811E-02 -7.28117435E-02 -1.39070599E-02 -6.39696514E-03
 -1.64555371E-02 -5.18489706E-02 -4.57336960E-02  1.42837845E-01  1.01489697E-01
 -5.93504092E-02  1.21658035E-01 -1.37271546E-01  2.37761263E-01 -5.18995623E-02
  1.03415410E-01 -5.55905000E-02  9.62855512E-02 -4.00142697E-02 -1.55103358E-02
 -4.03300393E-02 -3.35280936E-02 -5.18489732E-02 -3.35280943E-02 -5.18489623E-02
  2.23923901E-01 -7.68368887E-03  2.89764094E-02 -1.03805612E-01  1.79796557E-01
 -1.58190977E-02  2.29087284E-02 -4.20378879E-02  7.28117379E-02 -1.39070700E-02
 -6.39696225E-03 -1.64555289E-02 -5.18489727E-02 -4.57336975E-02 -5.18489639E-02
 -4.57336829E-02  1.42837846E-01  1.01489700E-01
Mulliken Charges                           R   N=           5
 -3.92795662E-01 -1.71923303E-01  1.88239648E-01  1.88239659E-01  1.88239657E-01
ONIOM Charges                              I   N=          16
           0           0           0           0           0           0
           0           0           0           0           0           0
           0           0           0           0
ONIOM Multiplicities                       I   N=          16
           1           0           0           0           0           0
           0           0           0           0           0           0
           0           0           0           0
Atom Layers                                I   N=           5
           1           1           1           1           1
Atom Modifiers                             I   N=           5
           0           0           0           0           0
Force Field                                I                0
Atom Modified Types                        C   N=           5
                                                            
Int Atom Modified Types                    I   N=           5
           0           0           0           0           0
Link Atoms                                 I   N=           5
           0           0           0           0           0
Atom Modified MM Charges                   R   N=           5
  0.00000000E+00  0.00000000E+00  0.00000000E+00  0.00000000E+00  0.00000000E+00
Link Distances                             R   N=          20
  0.00000000E+00  0.00000000E+00  0.00000000E+00  0.00000000E+00  0.00000000E+00
  0.00000000E+00  0.00000000E+00  0.00000000E+00  0.00000000E+00  0.00000000E+00
  0.00000000E+00  0.00000000E+00  0.00000000E+00  0.00000000E+00  0.00000000E+00
  0.00000000E+00  0.00000000E+00  0.00000000E+00  0.00000000E+00  0.00000000E+00
Cartesian Gradient                         R   N=          15
  0.00000000E+00  0.00000000E+00  0.00000000E+00  0.00000000E+00  0.00000000E+00
  0.00000000E+00  0.00000000E+00  0.00000000E+00  0.00000000E+00  0.00000000E+00
  0.00000000E+00  0.00000000E+00  0.00000000E+00  0.00000000E+00  0.00000000E+00
Nonadiabatic coupling                      R   N=          15
  0.00000000E+00  0.00000000E+00  0.00000000E+00  0.00000000E+00  0.00000000E+00
  0.00000000E+00  0.00000000E+00  0.00000000E+00  0.00000000E+00  0.00000000E+00
  0.00000000E+00  0.00000000E+00  0.00000000E+00  0.00000000E+00  0.00000000E+00
Dipole Moment                              R   N=           3
  8.78759309E-09 -4.57661782E-08 -1.32720728E+00
Quadrupole Moment                          R   N=           6
  1.77869171E+00  1.77869210E+00 -3.55738381E+00 -1.29396191E-09 -8.76578593E-08
 -9.85091387E-08
QEq coupling tensors                       R   N=          30
  3.62986981E-01  4.61968686E-09  3.62986962E-01 -6.47516344E-08 -1.18061446E-07
 -7.25973942E-01 -5.23469660E-03 -7.48586588E-12 -5.23469670E-03 -1.21905898E-10
 -3.27568393E-10  1.04693933E-02 -3.23615821E-01 -2.98944474E-09  1.87581488E-01
  1.55657358E-01  4.14439674E-10  1.36034333E-01  5.97821965E-02 -2.21354932E-01
 -1.95816593E-01 -7.78286203E-02 -1.34803159E-01  1.36034396E-01  5.97821555E-02
  2.21354931E-01 -1.95816482E-01 -7.78286844E-02  1.34803229E-01  1.36034326E-01
ClPar MaxAn                                I              200
ClPar NIntPar                              I                4
ClPar NRealPar                             I               16
ClPar NBits                                I               30
ClPar LenBitVec                            I                1
ClPar Read BitMap                          I   N=         200
           0           0           0           0           0           0
           0           0           0           0           0           0
           0           0           0           0           0           0
           0           0           0           0           0           0
           0           0           0           0           0           0
           0           0           0           0           0           0
           0           0           0           0           0           0
           0           0           0           0           0           0
           0           0           0           0           0           0
           0           0           0           0           0           0
           0           0           0           0           0           0
           0           0           0           0           0           0
           0           0           0           0           0           0
           0           0           0           0           0           0
           0           0           0           0           0           0
           0           0           0           0           0           0
           0           0           0           0           0           0
           0           0           0           0           0           0
           0           0           0           0           0           0
           0           0           0           0           0           0
           0           0           0           0           0           0
           0           0           0           0           0           0
           0           0           0           0           0           0
           0           0           0           0           0           0
           0           0           0           0           0           0
           0           0           0           0           0           0
           0           0           0           0           0           0
           0           0           0           0           0           0
           0           0           0           0           0           0
           0           0           0           0           0           0
           0           0           0           0           0           0
           0           0           0           0           0           0
           0           0           0           0           0           0
           0           0
ClPar Default BitMap                       I   N=         200
        2016        2016        2016        2016        2016        2016
        2016        2016        2016        2016        2016        2016
        2016        2016        2016        2016        2016        2016
        2016        2016        2016        2016        2016        2016
        2016        2016        2016        2016        2016        2016
        2016        2016        2016        2016        2016        2016
        2016        2016        2016        2016        2016        2016